============================== echo of input deck ==============================
echo

start model-fe2-xanes

scratch_dir /scratch

memory 7500 mb noverify

charge -2

geometry units angstroms nocenter noautoz noautosym
 Fe                    0.00000000     0.00000000     0.00000000
 C                    -1.81917027    -0.03335831    -0.71926660
 N                    -2.91104648    -0.05028038    -1.14336000
 C                    -0.26363647     1.81748256     0.66107639
 N                    -0.39650765     2.91674740     1.04361053
 C                    -0.65245477    -0.72431645     1.71356864
 N                    -1.01949658    -1.14265108     2.74378932
 C                     0.26492194    -1.81715092    -0.66122605
 N                     0.39946334    -2.91608401    -1.04407649
 C                     0.65377106     0.72497185    -1.71283131
 N                     1.02222110     1.14453278    -2.74209377
 C                     1.81942656     0.03289085     0.71938992
 N                     2.91151676     0.04957108     1.14269602
end

basis "ao basis" spherical print
 * library 6-311G** except Fe

Fe    S
    137853.7493220     0.0006380
     20678.4150350     0.0049310
      4705.9017690     0.0252760
      1331.1823060     0.0979290
       433.7105270     0.2729181
       154.9289110     0.4637671
        57.1522690     0.2799661
Fe    S
       333.2134370    -0.0241400
       103.0505740    -0.1158440
        15.8135210     0.5858491
         6.4304130     0.5036101
Fe    S
        10.4715570    -0.3671710
         1.7195610     1.1675540
Fe    S
         2.5115960     1.0000000
Fe    S
         0.6962400     1.0000000
Fe    S
         0.3707560     1.0000000
Fe    S
         0.1097690     1.0000000
Fe    S
         0.0389750     1.0000000
Fe    S
         0.0129917     1.0000000
Fe    P
      2678.4454910     0.0011060
       634.8715620     0.0093140
       204.7926610     0.0472830
        77.1096980     0.1621400
        31.7425270     0.3521650
        13.6985370     0.4328100
         5.7887720     0.1831820
Fe    P
        28.5745460    -0.0523840
         3.8278670     1.0163198
Fe    P
         1.5210260     1.0000000
Fe    P
         0.6861360     1.0000000
Fe    P
         0.3379950     1.0000000
Fe    P
         0.1058520     1.0000000
Fe    P
         0.0352840     1.0000000
Fe    D
       153.1499290     0.0024840
        39.2185330     0.0248150
        13.1241220     0.1124971
         4.9420130     0.2943312
         1.9182510     0.4364393
         0.7263080     0.4001553
Fe    D
         1.2013780     1.0000000
Fe    D
         0.4134800     1.0000000
Fe    D
         0.2769570     0.8033214
         0.1024240     0.2672791
Fe    D
         0.0471025     1.0000000
Fe    F
         7.1173700     0.2483609
         2.0161170     0.8674827
Fe    F
         0.5734880     1.0000000
Fe    F
         0.1911627     1.0000000
end

cosmo
  dielec 80.1
  do_gasphase false
end

dft
  odft
  xc pbe0
  mult 1
  print "final vectors analysis"
  maxiter 500
  mulliken
  direct
  vectors input 3p6_3d4.movecs output swap-54_54.movecs
# vectors swap beta 54 21
  noscf
end

set tddft:do_s2 .false.
tddft
  cis
  ecut -255.0
  nroots 100
  notriplet
end
task tddft
================================================================================

 Output coordinates in angstroms (scale by  1.889725989 to convert to a.u.)

  No.       Tag          Charge          X              Y              Z
 ---- ---------------- ---------- -------------- -------------- --------------
    1 Fe                  26.0000     0.00000000     0.00000000     0.00000000
    2 C                    6.0000    -1.81917027    -0.03335831    -0.71926660
    3 N                    7.0000    -2.91104648    -0.05028038    -1.14336000
    4 C                    6.0000    -0.26363647     1.81748256     0.66107639
    5 N                    7.0000    -0.39650765     2.91674740     1.04361053
    6 C                    6.0000    -0.65245477    -0.72431645     1.71356864
    7 N                    7.0000    -1.01949658    -1.14265108     2.74378932
    8 C                    6.0000     0.26492194    -1.81715092    -0.66122605
    9 N                    7.0000     0.39946334    -2.91608401    -1.04407649
   10 C                    6.0000     0.65377106     0.72497185    -1.71283131
   11 N                    7.0000     1.02222110     1.14453278    -2.74209377
   12 C                    6.0000     1.81942656     0.03289085     0.71938992
   13 N                    7.0000     2.91151676     0.04957108     1.14269602

         Total DFT energy =    -1820.282242626634

                    DFT Final Alpha Molecular Orbital Analysis
                    ------------------------------------------

 Vector    1  Occ=1.000000D+00  E=-2.564894D+02

 Vector  213  Occ=0.000000D+00  E= 2.746192D+00

 Vector  214  Occ=0.000000D+00  E= 2.752887D+00

 Vector  215  Occ=0.000000D+00  E= 2.756508D+00

 Vector  216  Occ=0.000000D+00  E= 2.775824D+00

 Vector  217  Occ=0.000000D+00  E= 2.776615D+00

 Vector  218  Occ=0.000000D+00  E= 2.780881D+00

 Vector  219  Occ=0.000000D+00  E= 2.871218D+00

 Vector  220  Occ=0.000000D+00  E= 2.879276D+00

 Vector  221  Occ=0.000000D+00  E= 2.879583D+00

 Vector  222  Occ=0.000000D+00  E= 2.918720D+00

 Vector  223  Occ=0.000000D+00  E= 2.924287D+00

 Vector  224  Occ=0.000000D+00  E= 2.931271D+00

 Vector  225  Occ=0.000000D+00  E= 2.931514D+00

 Vector  226  Occ=0.000000D+00  E= 2.942105D+00

 Vector  227  Occ=0.000000D+00  E= 2.953758D+00

 Vector  228  Occ=0.000000D+00  E= 2.955968D+00

 Vector  229  Occ=0.000000D+00  E= 2.964184D+00

 Vector  230  Occ=0.000000D+00  E= 2.967889D+00

 Vector  231  Occ=0.000000D+00  E= 2.971515D+00

 Vector  232  Occ=0.000000D+00  E= 3.118036D+00

 Vector  233  Occ=0.000000D+00  E= 3.122240D+00

 Vector  234  Occ=0.000000D+00  E= 3.137655D+00

 Vector  235  Occ=0.000000D+00  E= 3.139487D+00

 Vector  236  Occ=0.000000D+00  E= 3.158529D+00

 Vector  237  Occ=0.000000D+00  E= 3.390660D+00

 Vector  238  Occ=0.000000D+00  E= 3.403080D+00

 Vector  239  Occ=0.000000D+00  E= 3.415677D+00

 Vector  240  Occ=0.000000D+00  E= 3.444694D+00

 Vector  241  Occ=0.000000D+00  E= 3.457988D+00

 Vector  242  Occ=0.000000D+00  E= 3.496803D+00

 Vector  243  Occ=0.000000D+00  E= 3.854773D+00

 Vector  244  Occ=0.000000D+00  E= 3.862194D+00

 Vector  245  Occ=0.000000D+00  E= 3.872856D+00

 Vector  246  Occ=0.000000D+00  E= 3.903594D+00

 Vector  247  Occ=0.000000D+00  E= 3.907832D+00

 Vector  248  Occ=0.000000D+00  E= 3.911623D+00

 Vector  249  Occ=0.000000D+00  E= 3.911928D+00

 Vector  250  Occ=0.000000D+00  E= 3.914386D+00

 Vector  251  Occ=0.000000D+00  E= 3.916055D+00

 Vector  252  Occ=0.000000D+00  E= 3.927880D+00

 Vector  253  Occ=0.000000D+00  E= 3.942344D+00

 Vector  254  Occ=0.000000D+00  E= 3.943302D+00

 Vector  255  Occ=0.000000D+00  E= 3.955953D+00

 Vector  256  Occ=0.000000D+00  E= 3.960368D+00

 Vector  257  Occ=0.000000D+00  E= 3.966261D+00

 Vector  258  Occ=0.000000D+00  E= 4.496274D+00

 Vector  259  Occ=0.000000D+00  E= 4.500932D+00

 Vector  260  Occ=0.000000D+00  E= 4.518591D+00

 Vector  261  Occ=0.000000D+00  E= 4.552821D+00

 Vector  262  Occ=0.000000D+00  E= 4.562006D+00

 Vector  263  Occ=0.000000D+00  E= 4.586148D+00

 Vector  264  Occ=0.000000D+00  E= 5.330102D+00

 Vector  265  Occ=0.000000D+00  E= 5.807236D+00

 Vector  266  Occ=0.000000D+00  E= 5.834900D+00

 Vector  267  Occ=0.000000D+00  E= 5.837474D+00

 Vector  268  Occ=0.000000D+00  E= 6.301640D+00

 Vector  269  Occ=0.000000D+00  E= 6.346751D+00

 Vector  270  Occ=0.000000D+00  E= 6.480411D+00

 Vector  271  Occ=0.000000D+00  E= 6.592717D+00

 Vector  272  Occ=0.000000D+00  E= 6.605238D+00

 Vector  273  Occ=0.000000D+00  E= 6.617720D+00

 Vector  274  Occ=0.000000D+00  E= 6.885550D+00

 Vector  275  Occ=0.000000D+00  E= 6.904278D+00

 Vector  276  Occ=0.000000D+00  E= 6.935511D+00

 Vector  277  Occ=0.000000D+00  E= 1.045226D+01

 Vector  278  Occ=0.000000D+00  E= 1.046561D+01

 Vector  279  Occ=0.000000D+00  E= 1.051909D+01

 Vector  280  Occ=0.000000D+00  E= 2.405142D+01

 Vector  281  Occ=0.000000D+00  E= 2.411953D+01

 Vector  282  Occ=0.000000D+00  E= 2.413852D+01

 Vector  283  Occ=0.000000D+00  E= 2.420818D+01

 Vector  284  Occ=0.000000D+00  E= 2.421999D+01

 Vector  285  Occ=0.000000D+00  E= 2.423806D+01

 Vector  286  Occ=0.000000D+00  E= 3.590761D+01

 Vector  287  Occ=0.000000D+00  E= 3.591089D+01

 Vector  288  Occ=0.000000D+00  E= 3.593347D+01

 Vector  289  Occ=0.000000D+00  E= 3.595563D+01

 Vector  290  Occ=0.000000D+00  E= 3.596053D+01

 Vector  291  Occ=0.000000D+00  E= 3.598318D+01

 Vector  292  Occ=0.000000D+00  E= 3.957479D+01

     Multipole analysis of the density
     ---------------------------------

     L   x y z        total         alpha         beta         nuclear
     -   - - -        -----         -----         ----         -------
     0   0 0 0     -2.000000    -53.000000    -53.000000    104.000000

     1   1 0 0     -0.004264     -0.059015     -0.059015      0.113765
     1   0 1 0     -0.001900     -0.016037     -0.016037      0.030175
     1   0 0 1      0.000317     -0.007613     -0.007613      0.015543

     2   2 0 0    -96.743465   -371.803939   -371.803939    646.864413
     2   1 1 0     -0.577398     -5.232072     -5.232072      9.886746
     2   1 0 1     -2.646373     -4.447132     -4.447132      6.247890
     2   0 2 0    -91.262930   -373.039203   -373.039203    654.815475
     2   0 1 1      0.098925      1.281007      1.281007     -2.463090

  Root   1         a            255.985842042 a.u.             6965.7321 eV
     Dipole Oscillator Strength                    0.0000000000
  Root   2         a            255.986572413 a.u.             6965.7520 eV
     Dipole Oscillator Strength                    0.0000000001
  Root   3         a            256.169667225 a.u.             6970.7343 eV
     Dipole Oscillator Strength                    0.0000000000
  Root   4         a            256.170248998 a.u.             6970.7501 eV
     Dipole Oscillator Strength                    0.0000000000
  Root   5         a            256.196617353 a.u.             6971.4676 eV
     Dipole Oscillator Strength                    0.0000000000
  Root   6         a            256.197265687 a.u.             6971.4853 eV
     Dipole Oscillator Strength                    0.0000000000
  Root   7         a            256.418140064 a.u.             6977.4956 eV
     Dipole Oscillator Strength                    0.0000000000
  Root   8         a            256.418252371 a.u.             6977.4986 eV
     Dipole Oscillator Strength                    0.0000000000
  Root   9         a            256.419157819 a.u.             6977.5233 eV
     Dipole Oscillator Strength                    0.0000000000
  Root  10         a            256.419275492 a.u.             6977.5265 eV
     Dipole Oscillator Strength                    0.0000000000
  Root  11         a            256.425821350 a.u.             6977.7046 eV
     Dipole Oscillator Strength                    0.0000000000
  Root  12         a            256.425883237 a.u.             6977.7063 eV
     Dipole Oscillator Strength                    0.0000000000
  Root  13         a            256.460879670 a.u.             6978.6586 eV
     Dipole Oscillator Strength                    0.0000000000
  Root  14         a            256.461451160 a.u.             6978.6741 eV
     Dipole Oscillator Strength                    0.0000000007
  Root  15         a            256.465113530 a.u.             6978.7738 eV
     Dipole Oscillator Strength                    0.0000000000
  Root  16         a            256.465162397 a.u.             6978.7751 eV
     Dipole Oscillator Strength                    0.0000120627
  Root  17         a            256.466541562 a.u.             6978.8126 eV
     Dipole Oscillator Strength                    0.0000000000
  Root  18         a            256.466609292 a.u.             6978.8145 eV
     Dipole Oscillator Strength                    0.0000163922
  Root  19         a            256.467937706 a.u.             6978.8506 eV
     Dipole Oscillator Strength                    0.0000000000
  Root  20         a            256.467981956 a.u.             6978.8518 eV
     Dipole Oscillator Strength                    0.0000107911
  Root  21         a            256.488132707 a.u.             6979.4002 eV
     Dipole Oscillator Strength                    0.0000000000
  Root  22         a            256.488134690 a.u.             6979.4002 eV
     Dipole Oscillator Strength                    0.0000004576
  Root  23         a            256.496512305 a.u.             6979.6282 eV
     Dipole Oscillator Strength                    0.0000000000
  Root  24         a            256.496516926 a.u.             6979.6283 eV
     Dipole Oscillator Strength                    0.0000011122
  Root  25         a            256.496626487 a.u.             6979.6313 eV
     Dipole Oscillator Strength                    0.0000000000
  Root  26         a            256.496630789 a.u.             6979.6314 eV
     Dipole Oscillator Strength                    0.0000010553
  Root  27         a            256.512406697 a.u.             6980.0607 eV
     Dipole Oscillator Strength                    0.0000000000
  Root  28         a            256.512597829 a.u.             6980.0659 eV
     Dipole Oscillator Strength                    0.0000426581
  Root  29         a            256.512904346 a.u.             6980.0742 eV
     Dipole Oscillator Strength                    0.0000000000
  Root  30         a            256.513096520 a.u.             6980.0795 eV
     Dipole Oscillator Strength                    0.0000427441
  Root  31         a            256.514352530 a.u.             6980.1137 eV
     Dipole Oscillator Strength                    0.0000000000
  Root  32         a            256.514540271 a.u.             6980.1188 eV
     Dipole Oscillator Strength                    0.0000418925
  Root  33         a            256.535811998 a.u.             6980.6976 eV
     Dipole Oscillator Strength                    0.0000000000
  Root  34         a            256.535850437 a.u.             6980.6986 eV
     Dipole Oscillator Strength                    0.0000000000
  Root  35         a            256.544427775 a.u.             6980.9320 eV
     Dipole Oscillator Strength                    0.0000000000
  Root  36         a            256.544657071 a.u.             6980.9383 eV
     Dipole Oscillator Strength                    0.0000000001
  Root  37         a            256.545575276 a.u.             6980.9633 eV
     Dipole Oscillator Strength                    0.0000000000
  Root  38         a            256.545606120 a.u.             6980.9641 eV
     Dipole Oscillator Strength                    0.0000000000
  Root  39         a            256.548854664 a.u.             6981.0525 eV
     Dipole Oscillator Strength                    0.0000000000
  Root  40         a            256.550087216 a.u.             6981.0860 eV
     Dipole Oscillator Strength                    0.0000000000
  Root  41         a            256.565884043 a.u.             6981.5159 eV
     Dipole Oscillator Strength                    0.0000000000
  Root  42         a            256.565884755 a.u.             6981.5159 eV
     Dipole Oscillator Strength                    0.0000000000
  Root  43         a            256.567388474 a.u.             6981.5568 eV
     Dipole Oscillator Strength                    0.0000000000
  Root  44         a            256.567391375 a.u.             6981.5569 eV
     Dipole Oscillator Strength                    0.0000000000
  Root  45         a            256.567659904 a.u.             6981.5642 eV
     Dipole Oscillator Strength                    0.0000000000
  Root  46         a            256.567662690 a.u.             6981.5643 eV
     Dipole Oscillator Strength                    0.0000000000
  Root  47         a            256.585353949 a.u.             6982.0457 eV
     Dipole Oscillator Strength                    0.0000000000
  Root  48         a            256.585359004 a.u.             6982.0458 eV
     Dipole Oscillator Strength                    0.0000000000
  Root  49         a            256.586406165 a.u.             6982.0743 eV
     Dipole Oscillator Strength                    0.0000000000
  Root  50         a            256.586412368 a.u.             6982.0745 eV
     Dipole Oscillator Strength                    0.0000000000
     Dipole Oscillator Strength                    0.0000000000
  Root  52         a            256.760112117 a.u.             6986.8011 eV
     Dipole Oscillator Strength                    0.0000000007
  Root  53         a            256.763653933 a.u.             6986.8975 eV
     Dipole Oscillator Strength                    0.0000000000
  Root  54         a            256.764491311 a.u.             6986.9203 eV
     Dipole Oscillator Strength                    0.0000000000
  Root  55         a            256.766121991 a.u.             6986.9647 eV
     Dipole Oscillator Strength                    0.0006000368
  Root  56         a            256.766838652 a.u.             6986.9842 eV
     Dipole Oscillator Strength                    0.0005758980
  Root  57         a            256.770683016 a.u.             6987.0888 eV
     Dipole Oscillator Strength                    0.0000000000
  Root  58         a            256.772843657 a.u.             6987.1476 eV
     Dipole Oscillator Strength                    0.0005345264
  Root  59         a            256.875001223 a.u.             6989.9274 eV
     Dipole Oscillator Strength                    0.0000000000
  Root  60         a            256.875811828 a.u.             6989.9495 eV
     Dipole Oscillator Strength                    0.0001426477
  Root  61         a            256.881864635 a.u.             6990.1142 eV
     Dipole Oscillator Strength                    0.0000000000
  Root  62         a            256.884304369 a.u.             6990.1806 eV
     Dipole Oscillator Strength                    0.0005829728
  Root  63         a            256.885730705 a.u.             6990.2194 eV
     Dipole Oscillator Strength                    0.0000000000
  Root  64         a            256.888600144 a.u.             6990.2975 eV
     Dipole Oscillator Strength                    0.0006707223
  Root  65         a            256.893094743 a.u.             6990.4198 eV
     Dipole Oscillator Strength                    0.0000000000
  Root  66         a            256.896067551 a.u.             6990.5007 eV
     Dipole Oscillator Strength                    0.0006774936
  Root  67         a            256.926697513 a.u.             6991.3341 eV
     Dipole Oscillator Strength                    0.0000000000
  Root  68         a            256.926701036 a.u.             6991.3342 eV
     Dipole Oscillator Strength                    0.0000008489
  Root  69         a            256.929232520 a.u.             6991.4031 eV
     Dipole Oscillator Strength                    0.0000000000
  Root  70         a            256.929270921 a.u.             6991.4042 eV
     Dipole Oscillator Strength                    0.0000090262
  Root  71         a            256.929567716 a.u.             6991.4122 eV
     Dipole Oscillator Strength                    0.0000000000
  Root  72         a            256.929617131 a.u.             6991.4136 eV
     Dipole Oscillator Strength                    0.0000117511
  Root  73         a            256.942337902 a.u.             6991.7597 eV
     Dipole Oscillator Strength                    0.0000000000
  Root  74         a            256.942361539 a.u.             6991.7604 eV
     Dipole Oscillator Strength                    0.0000000097
  Root  75         a            256.947790600 a.u.             6991.9081 eV
     Dipole Oscillator Strength                    0.0000000000
  Root  76         a            256.948394816 a.u.             6991.9245 eV
     Dipole Oscillator Strength                    0.0000000000
  Root  77         a            256.948426524 a.u.             6991.9254 eV
     Dipole Oscillator Strength                    0.0000004931
  Root  78         a            256.949176420 a.u.             6991.9458 eV
     Dipole Oscillator Strength                    0.0003534154
  Root  79         a            256.949808355 a.u.             6991.9630 eV
     Dipole Oscillator Strength                    0.0000000000
  Root  80         a            256.951440483 a.u.             6992.0074 eV
     Dipole Oscillator Strength                    0.0004164588
  Root  81         a            256.952152594 a.u.             6992.0268 eV
     Dipole Oscillator Strength                    0.0000000000
  Root  82         a            256.953733783 a.u.             6992.0698 eV
     Dipole Oscillator Strength                    0.0004046904
  Root  83         a            256.973235545 a.u.             6992.6005 eV
     Dipole Oscillator Strength                    0.0000000000
  Root  84         a            256.974940367 a.u.             6992.6469 eV
     Dipole Oscillator Strength                    0.0000000106
  Root  85         a            256.994975833 a.u.             6993.1921 eV
     Dipole Oscillator Strength                    0.0000000000
  Root  86         a            256.995027550 a.u.             6993.1935 eV
     Dipole Oscillator Strength                    0.0000000017
  Root  87         a            256.999421405 a.u.             6993.3131 eV
     Dipole Oscillator Strength                    0.0000000000
  Root  88         a            256.999479010 a.u.             6993.3146 eV
     Dipole Oscillator Strength                    0.0000000068
  Root  89         a            257.001182942 a.u.             6993.3610 eV
     Dipole Oscillator Strength                    0.0000000000
  Root  90         a            257.001229793 a.u.             6993.3623 eV
     Dipole Oscillator Strength                    0.0000000038
  Root  91         a            257.007338347 a.u.             6993.5285 eV
     Dipole Oscillator Strength                    0.0000004059
  Root  92         a            257.007338733 a.u.             6993.5285 eV
     Dipole Oscillator Strength                    0.0000000000
  Root  93         a            257.007509468 a.u.             6993.5331 eV
     Dipole Oscillator Strength                    0.0000000000
  Root  94         a            257.007522791 a.u.             6993.5335 eV
     Dipole Oscillator Strength                    0.0000030412
  Root  95         a            257.008944687 a.u.             6993.5722 eV
     Dipole Oscillator Strength                    0.0000000000
  Root  96         a            257.008985659 a.u.             6993.5733 eV
     Dipole Oscillator Strength                    0.0000000061
  Root  97         a            257.013609124 a.u.             6993.6991 eV
     Dipole Oscillator Strength                    0.0000000000
  Root  98         a            257.013617575 a.u.             6993.6994 eV
     Dipole Oscillator Strength                    0.0000020001
  Root  99         a            257.014496440 a.u.             6993.7233 eV
     Dipole Oscillator Strength                    0.0000000000
  Root 100         a            257.014502552 a.u.             6993.7234 eV
     Dipole Oscillator Strength                    0.0000000004
 Total times  cpu:      404.4s     wall:      453.2s
