============================== echo of input deck ==============================
echo

start model-fe2-xanes

scratch_dir /scratch

memory 7500 mb noverify

charge -4

geometry units angstroms nocenter noautoz noautosym
 Fe                    0.00000000     0.00000000     0.00000000
 C                    -1.81917027    -0.03335831    -0.71926660
 N                    -2.91104648    -0.05028038    -1.14336000
 C                    -0.26363647     1.81748256     0.66107639
 N                    -0.39650765     2.91674740     1.04361053
 C                    -0.65245477    -0.72431645     1.71356864
 N                    -1.01949658    -1.14265108     2.74378932
 C                     0.26492194    -1.81715092    -0.66122605
 N                     0.39946334    -2.91608401    -1.04407649
 C                     0.65377106     0.72497185    -1.71283131
 N                     1.02222110     1.14453278    -2.74209377
 C                     1.81942656     0.03289085     0.71938992
 N                     2.91151676     0.04957108     1.14269602
end

basis "ao basis" spherical print
 * library 6-311G** except Fe

Fe    S
    137853.7493220     0.0006380
     20678.4150350     0.0049310
      4705.9017690     0.0252760
      1331.1823060     0.0979290
       433.7105270     0.2729181
       154.9289110     0.4637671
        57.1522690     0.2799661
Fe    S
       333.2134370    -0.0241400
       103.0505740    -0.1158440
        15.8135210     0.5858491
         6.4304130     0.5036101
Fe    S
        10.4715570    -0.3671710
         1.7195610     1.1675540
Fe    S
         2.5115960     1.0000000
Fe    S
         0.6962400     1.0000000
Fe    S
         0.3707560     1.0000000
Fe    S
         0.1097690     1.0000000
Fe    S
         0.0389750     1.0000000
Fe    S
         0.0129917     1.0000000
Fe    P
      2678.4454910     0.0011060
       634.8715620     0.0093140
       204.7926610     0.0472830
        77.1096980     0.1621400
        31.7425270     0.3521650
        13.6985370     0.4328100
         5.7887720     0.1831820
Fe    P
        28.5745460    -0.0523840
         3.8278670     1.0163198
Fe    P
         1.5210260     1.0000000
Fe    P
         0.6861360     1.0000000
Fe    P
         0.3379950     1.0000000
Fe    P
         0.1058520     1.0000000
Fe    P
         0.0352840     1.0000000
Fe    D
       153.1499290     0.0024840
        39.2185330     0.0248150
        13.1241220     0.1124971
         4.9420130     0.2943312
         1.9182510     0.4364393
         0.7263080     0.4001553
Fe    D
         1.2013780     1.0000000
Fe    D
         0.4134800     1.0000000
Fe    D
         0.2769570     0.8033214
         0.1024240     0.2672791
Fe    D
         0.0471025     1.0000000
Fe    F
         7.1173700     0.2483609
         2.0161170     0.8674827
Fe    F
         0.5734880     1.0000000
Fe    F
         0.1911627     1.0000000
end

cosmo
  dielec 80.1
  do_gasphase false
end

dft
  odft
  xc pbe0
  mult 1
  print "final vectors analysis"
  maxiter 500
  mulliken
  direct
  vectors input 3p6_3d6.movecs output swap-54_54.movecs
# vectors swap beta 54 21
  noscf
end

set tddft:do_s2 .false.
tddft
  cis
  ecut -255.0
  nroots 100
  notriplet
end
task tddft
================================================================================

 Output coordinates in angstroms (scale by  1.889725989 to convert to a.u.)

  No.       Tag          Charge          X              Y              Z
 ---- ---------------- ---------- -------------- -------------- --------------
    1 Fe                  26.0000     0.00000000     0.00000000     0.00000000
    2 C                    6.0000    -1.81917027    -0.03335831    -0.71926660
    3 N                    7.0000    -2.91104648    -0.05028038    -1.14336000
    4 C                    6.0000    -0.26363647     1.81748256     0.66107639
    5 N                    7.0000    -0.39650765     2.91674740     1.04361053
    6 C                    6.0000    -0.65245477    -0.72431645     1.71356864
    7 N                    7.0000    -1.01949658    -1.14265108     2.74378932
    8 C                    6.0000     0.26492194    -1.81715092    -0.66122605
    9 N                    7.0000     0.39946334    -2.91608401    -1.04407649
   10 C                    6.0000     0.65377106     0.72497185    -1.71283131
   11 N                    7.0000     1.02222110     1.14453278    -2.74209377
   12 C                    6.0000     1.81942656     0.03289085     0.71938992
   13 N                    7.0000     2.91151676     0.04957108     1.14269602

         Total DFT energy =    -1820.708967970797

                    DFT Final Alpha Molecular Orbital Analysis
                    ------------------------------------------

 Vector    1  Occ=1.000000D+00  E=-2.562945D+02

 Vector  213  Occ=0.000000D+00  E= 2.823333D+00

 Vector  214  Occ=0.000000D+00  E= 2.827785D+00

 Vector  215  Occ=0.000000D+00  E= 2.830613D+00

 Vector  216  Occ=0.000000D+00  E= 2.845932D+00

 Vector  217  Occ=0.000000D+00  E= 2.847399D+00

 Vector  218  Occ=0.000000D+00  E= 2.849358D+00

 Vector  219  Occ=0.000000D+00  E= 2.935597D+00

 Vector  220  Occ=0.000000D+00  E= 2.936069D+00

 Vector  221  Occ=0.000000D+00  E= 2.936448D+00

 Vector  222  Occ=0.000000D+00  E= 2.984663D+00

 Vector  223  Occ=0.000000D+00  E= 2.991123D+00

 Vector  224  Occ=0.000000D+00  E= 2.998249D+00

 Vector  225  Occ=0.000000D+00  E= 2.999950D+00

 Vector  226  Occ=0.000000D+00  E= 3.001568D+00

 Vector  227  Occ=0.000000D+00  E= 3.015386D+00

 Vector  228  Occ=0.000000D+00  E= 3.019816D+00

 Vector  229  Occ=0.000000D+00  E= 3.025454D+00

 Vector  230  Occ=0.000000D+00  E= 3.027579D+00

 Vector  231  Occ=0.000000D+00  E= 3.031569D+00

 Vector  232  Occ=0.000000D+00  E= 3.206217D+00

 Vector  233  Occ=0.000000D+00  E= 3.212746D+00

 Vector  234  Occ=0.000000D+00  E= 3.215623D+00

 Vector  235  Occ=0.000000D+00  E= 3.231545D+00

 Vector  236  Occ=0.000000D+00  E= 3.237145D+00

 Vector  237  Occ=0.000000D+00  E= 3.470963D+00

 Vector  238  Occ=0.000000D+00  E= 3.477161D+00

 Vector  239  Occ=0.000000D+00  E= 3.515565D+00

 Vector  240  Occ=0.000000D+00  E= 3.543993D+00

 Vector  241  Occ=0.000000D+00  E= 3.549500D+00

 Vector  242  Occ=0.000000D+00  E= 3.572549D+00

 Vector  243  Occ=0.000000D+00  E= 3.940358D+00

 Vector  244  Occ=0.000000D+00  E= 3.942953D+00

 Vector  245  Occ=0.000000D+00  E= 3.948470D+00

 Vector  246  Occ=0.000000D+00  E= 3.970188D+00

 Vector  247  Occ=0.000000D+00  E= 3.970476D+00

 Vector  248  Occ=0.000000D+00  E= 3.970775D+00

 Vector  249  Occ=0.000000D+00  E= 3.972087D+00

 Vector  250  Occ=0.000000D+00  E= 3.973167D+00

 Vector  251  Occ=0.000000D+00  E= 3.975201D+00

 Vector  252  Occ=0.000000D+00  E= 3.994223D+00

 Vector  253  Occ=0.000000D+00  E= 3.996163D+00

 Vector  254  Occ=0.000000D+00  E= 3.996623D+00

 Vector  255  Occ=0.000000D+00  E= 4.028795D+00

 Vector  256  Occ=0.000000D+00  E= 4.034927D+00

 Vector  257  Occ=0.000000D+00  E= 4.040920D+00

 Vector  258  Occ=0.000000D+00  E= 4.566084D+00

 Vector  259  Occ=0.000000D+00  E= 4.569425D+00

 Vector  260  Occ=0.000000D+00  E= 4.571833D+00

 Vector  261  Occ=0.000000D+00  E= 4.619768D+00

 Vector  262  Occ=0.000000D+00  E= 4.621881D+00

 Vector  263  Occ=0.000000D+00  E= 4.650792D+00

 Vector  264  Occ=0.000000D+00  E= 5.480603D+00

 Vector  265  Occ=0.000000D+00  E= 5.996744D+00

 Vector  266  Occ=0.000000D+00  E= 6.001628D+00

 Vector  267  Occ=0.000000D+00  E= 6.002386D+00

 Vector  268  Occ=0.000000D+00  E= 6.493387D+00

 Vector  269  Occ=0.000000D+00  E= 6.499616D+00

 Vector  270  Occ=0.000000D+00  E= 6.667549D+00

 Vector  271  Occ=0.000000D+00  E= 6.788843D+00

 Vector  272  Occ=0.000000D+00  E= 6.790777D+00

 Vector  273  Occ=0.000000D+00  E= 6.792356D+00

 Vector  274  Occ=0.000000D+00  E= 7.078614D+00

 Vector  275  Occ=0.000000D+00  E= 7.089655D+00

 Vector  276  Occ=0.000000D+00  E= 7.101226D+00

 Vector  277  Occ=0.000000D+00  E= 1.065339D+01

 Vector  278  Occ=0.000000D+00  E= 1.066223D+01

 Vector  279  Occ=0.000000D+00  E= 1.066976D+01

 Vector  280  Occ=0.000000D+00  E= 2.412520D+01

 Vector  281  Occ=0.000000D+00  E= 2.419569D+01

 Vector  282  Occ=0.000000D+00  E= 2.420536D+01

 Vector  283  Occ=0.000000D+00  E= 2.428688D+01

 Vector  284  Occ=0.000000D+00  E= 2.429409D+01

 Vector  285  Occ=0.000000D+00  E= 2.430221D+01

 Vector  286  Occ=0.000000D+00  E= 3.598615D+01

 Vector  287  Occ=0.000000D+00  E= 3.599012D+01

 Vector  288  Occ=0.000000D+00  E= 3.599117D+01

 Vector  289  Occ=0.000000D+00  E= 3.603506D+01

 Vector  290  Occ=0.000000D+00  E= 3.603861D+01

 Vector  291  Occ=0.000000D+00  E= 3.604105D+01

 Vector  292  Occ=0.000000D+00  E= 3.974700D+01

     Multipole analysis of the density
     ---------------------------------

     L   x y z        total         alpha         beta         nuclear
     -   - - -        -----         -----         ----         -------
     0   0 0 0     -4.000000    -54.000000    -54.000000    104.000000

     1   1 0 0     -0.006027     -0.059896     -0.059896      0.113765
     1   0 1 0     -0.002138     -0.016156     -0.016156      0.030175
     1   0 0 1     -0.000403     -0.007973     -0.007973      0.015543

     2   2 0 0   -115.929272   -381.396843   -381.396843    646.864413
     2   1 1 0     -0.599771     -5.243259     -5.243259      9.886746
     2   1 0 1     -0.394526     -3.321208     -3.321208      6.247890
     2   0 2 0   -116.626463   -385.720969   -385.720969    654.815475
     2   0 1 1      0.277797      1.370443      1.370443     -2.463090

  Root   1         a            256.109019795 a.u.             6969.0840 eV
     Dipole Oscillator Strength                    0.0000000000
  Root   2         a            256.109734812 a.u.             6969.1034 eV
     Dipole Oscillator Strength                    0.0000000000
  Root   3         a            256.112981674 a.u.             6969.1918 eV
     Dipole Oscillator Strength                    0.0000000000
  Root   4         a            256.113693490 a.u.             6969.2112 eV
     Dipole Oscillator Strength                    0.0000000000
  Root   5         a            256.270419623 a.u.             6973.4759 eV
     Dipole Oscillator Strength                    0.0000000000
  Root   6         a            256.270730527 a.u.             6973.4844 eV
     Dipole Oscillator Strength                    0.0000000000
  Root   7         a            256.271964640 a.u.             6973.5179 eV
     Dipole Oscillator Strength                    0.0000000000
  Root   8         a            256.272162087 a.u.             6973.5233 eV
     Dipole Oscillator Strength                    0.0000000000
  Root   9         a            256.272738313 a.u.             6973.5390 eV
     Dipole Oscillator Strength                    0.0000000000
  Root  10         a            256.272940249 a.u.             6973.5445 eV
     Dipole Oscillator Strength                    0.0000000000
  Root  11         a            256.273303382 a.u.             6973.5544 eV
     Dipole Oscillator Strength                    0.0000000000
  Root  12         a            256.273500655 a.u.             6973.5597 eV
     Dipole Oscillator Strength                    0.0000000000
  Root  13         a            256.320934704 a.u.             6974.8505 eV
     Dipole Oscillator Strength                    0.0000000000
  Root  14         a            256.321058601 a.u.             6974.8539 eV
     Dipole Oscillator Strength                    0.0000270024
  Root  15         a            256.321885407 a.u.             6974.8764 eV
     Dipole Oscillator Strength                    0.0000000000
  Root  16         a            256.322003480 a.u.             6974.8796 eV
     Dipole Oscillator Strength                    0.0000257820
  Root  17         a            256.325589421 a.u.             6974.9771 eV
     Dipole Oscillator Strength                    0.0000000000
  Root  18         a            256.325712260 a.u.             6974.9805 eV
     Dipole Oscillator Strength                    0.0000266407
  Root  19         a            256.332395813 a.u.             6975.1624 eV
     Dipole Oscillator Strength                    0.0000000000
  Root  20         a            256.332453586 a.u.             6975.1639 eV
     Dipole Oscillator Strength                    0.0000139814
  Root  21         a            256.333254758 a.u.             6975.1857 eV
     Dipole Oscillator Strength                    0.0000000000
  Root  22         a            256.333295781 a.u.             6975.1868 eV
     Dipole Oscillator Strength                    0.0000099660
  Root  23         a            256.334627735 a.u.             6975.2231 eV
     Dipole Oscillator Strength                    0.0000000000
  Root  24         a            256.334680031 a.u.             6975.2245 eV
     Dipole Oscillator Strength                    0.0000125076
  Root  25         a            256.356194206 a.u.             6975.8099 eV
     Dipole Oscillator Strength                    0.0000000000
  Root  26         a            256.356194325 a.u.             6975.8099 eV
     Dipole Oscillator Strength                    0.0000000306
  Root  27         a            256.356779326 a.u.             6975.8259 eV
     Dipole Oscillator Strength                    0.0000000000
  Root  28         a            256.356779532 a.u.             6975.8259 eV
     Dipole Oscillator Strength                    0.0000000573
  Root  29         a            256.357455069 a.u.             6975.8443 eV
     Dipole Oscillator Strength                    0.0000000000
  Root  30         a            256.357455186 a.u.             6975.8443 eV
     Dipole Oscillator Strength                    0.0000000288
  Root  31         a            256.366777930 a.u.             6976.0979 eV
     Dipole Oscillator Strength                    0.0000000000
  Root  32         a            256.367704935 a.u.             6976.1232 eV
     Dipole Oscillator Strength                    0.0000000000
  Root  33         a            256.374109927 a.u.             6976.2975 eV
     Dipole Oscillator Strength                    0.0000000000
  Root  34         a            256.374138153 a.u.             6976.2982 eV
     Dipole Oscillator Strength                    0.0000000000
  Root  35         a            256.377880834 a.u.             6976.4001 eV
     Dipole Oscillator Strength                    0.0000000000
  Root  36         a            256.377887119 a.u.             6976.4002 eV
     Dipole Oscillator Strength                    0.0000000000
  Root  37         a            256.378690616 a.u.             6976.4221 eV
     Dipole Oscillator Strength                    0.0000000000
  Root  38         a            256.378718962 a.u.             6976.4229 eV
     Dipole Oscillator Strength                    0.0000000000
  Root  39         a            256.398760620 a.u.             6976.9682 eV
     Dipole Oscillator Strength                    0.0000000000
  Root  40         a            256.398770455 a.u.             6976.9685 eV
     Dipole Oscillator Strength                    0.0000000000
  Root  41         a            256.399495061 a.u.             6976.9882 eV
     Dipole Oscillator Strength                    0.0000000000
  Root  42         a            256.399504201 a.u.             6976.9885 eV
     Dipole Oscillator Strength                    0.0000000000
  Root  43         a            256.407104802 a.u.             6977.1953 eV
     Dipole Oscillator Strength                    0.0000000000
  Root  44         a            256.407104878 a.u.             6977.1953 eV
     Dipole Oscillator Strength                    0.0000000002
  Root  45         a            256.407687493 a.u.             6977.2111 eV
     Dipole Oscillator Strength                    0.0000000000
  Root  46         a            256.407687616 a.u.             6977.2112 eV
     Dipole Oscillator Strength                    0.0000000001
  Root  47         a            256.408044643 a.u.             6977.2209 eV
     Dipole Oscillator Strength                    0.0000000000
  Root  48         a            256.408044847 a.u.             6977.2209 eV
     Dipole Oscillator Strength                    0.0000000001
  Root  49         a            256.601707898 a.u.             6982.4907 eV
     Dipole Oscillator Strength                    0.0000000000
  Root  50         a            256.603001579 a.u.             6982.5259 eV
     Dipole Oscillator Strength                    0.0003282791
     Dipole Oscillator Strength                    0.0000000000
  Root  52         a            256.604492777 a.u.             6982.5665 eV
     Dipole Oscillator Strength                    0.0003374298
  Root  53         a            256.605285220 a.u.             6982.5881 eV
     Dipole Oscillator Strength                    0.0000000000
  Root  54         a            256.606644398 a.u.             6982.6250 eV
     Dipole Oscillator Strength                    0.0003436028
  Root  55         a            256.633465681 a.u.             6983.3549 eV
     Dipole Oscillator Strength                    0.0000000000
  Root  56         a            256.642872151 a.u.             6983.6109 eV
     Dipole Oscillator Strength                    0.0000000001
  Root  57         a            256.749391745 a.u.             6986.5094 eV
     Dipole Oscillator Strength                    0.0000000000
  Root  58         a            256.750660595 a.u.             6986.5439 eV
     Dipole Oscillator Strength                    0.0002566542
  Root  59         a            256.751933451 a.u.             6986.5786 eV
     Dipole Oscillator Strength                    0.0000000000
  Root  60         a            256.752692991 a.u.             6986.5992 eV
     Dipole Oscillator Strength                    0.0001510238
  Root  61         a            256.754133518 a.u.             6986.6384 eV
     Dipole Oscillator Strength                    0.0000000000
  Root  62         a            256.755141188 a.u.             6986.6658 eV
     Dipole Oscillator Strength                    0.0002192303
  Root  63         a            256.757155521 a.u.             6986.7207 eV
     Dipole Oscillator Strength                    0.0000000000
  Root  64         a            256.757889192 a.u.             6986.7406 eV
     Dipole Oscillator Strength                    0.0001621467
  Root  65         a            256.763710987 a.u.             6986.8990 eV
     Dipole Oscillator Strength                    0.0000000000
  Root  66         a            256.763725002 a.u.             6986.8994 eV
     Dipole Oscillator Strength                    0.0000032511
  Root  67         a            256.764724846 a.u.             6986.9266 eV
     Dipole Oscillator Strength                    0.0000000000
  Root  68         a            256.764750987 a.u.             6986.9273 eV
     Dipole Oscillator Strength                    0.0000059843
  Root  69         a            256.765430929 a.u.             6986.9458 eV
     Dipole Oscillator Strength                    0.0000000000
  Root  70         a            256.765437902 a.u.             6986.9460 eV
     Dipole Oscillator Strength                    0.0000015239
  Root  71         a            256.780334356 a.u.             6987.3514 eV
     Dipole Oscillator Strength                    0.0000000000
  Root  72         a            256.780351022 a.u.             6987.3518 eV
     Dipole Oscillator Strength                    0.0000000074
  Root  73         a            256.781593905 a.u.             6987.3857 eV
     Dipole Oscillator Strength                    0.0000000000
  Root  74         a            256.781610497 a.u.             6987.3861 eV
     Dipole Oscillator Strength                    0.0000000013
  Root  75         a            256.796367711 a.u.             6987.7877 eV
     Dipole Oscillator Strength                    0.0000000000
  Root  76         a            256.799697517 a.u.             6987.8783 eV
     Dipole Oscillator Strength                    0.0000000000
  Root  77         a            256.799923579 a.u.             6987.8844 eV
     Dipole Oscillator Strength                    0.0008663951
  Root  78         a            256.802573891 a.u.             6987.9566 eV
     Dipole Oscillator Strength                    0.0000000000
  Root  79         a            256.803324807 a.u.             6987.9770 eV
     Dipole Oscillator Strength                    0.0008762540
  Root  80         a            256.806121613 a.u.             6988.0531 eV
     Dipole Oscillator Strength                    0.0008643423
  Root  81         a            256.808975432 a.u.             6988.1308 eV
     Dipole Oscillator Strength                    0.0000000000
  Root  82         a            256.811495633 a.u.             6988.1993 eV
     Dipole Oscillator Strength                    0.0000000420
  Root  83         a            256.846840778 a.u.             6989.1611 eV
     Dipole Oscillator Strength                    0.0000000000
  Root  84         a            256.846841276 a.u.             6989.1611 eV
     Dipole Oscillator Strength                    0.0000000020
  Root  85         a            256.847343824 a.u.             6989.1748 eV
     Dipole Oscillator Strength                    0.0000000000
  Root  86         a            256.847344151 a.u.             6989.1748 eV
     Dipole Oscillator Strength                    0.0000000072
  Root  87         a            256.850915772 a.u.             6989.2720 eV
     Dipole Oscillator Strength                    0.0000000000
  Root  88         a            256.850950515 a.u.             6989.2730 eV
     Dipole Oscillator Strength                    0.0000113627
  Root  89         a            256.851279847 a.u.             6989.2819 eV
     Dipole Oscillator Strength                    0.0000000000
  Root  90         a            256.851426441 a.u.             6989.2859 eV
     Dipole Oscillator Strength                    0.0000424020
  Root  91         a            256.852938138 a.u.             6989.3270 eV
     Dipole Oscillator Strength                    0.0000000000
  Root  92         a            256.853190532 a.u.             6989.3339 eV
     Dipole Oscillator Strength                    0.0000709285
  Root  93         a            256.856263849 a.u.             6989.4175 eV
     Dipole Oscillator Strength                    0.0000000000
  Root  94         a            256.856287955 a.u.             6989.4182 eV
     Dipole Oscillator Strength                    0.0000000240
  Root  95         a            256.857622379 a.u.             6989.4545 eV
     Dipole Oscillator Strength                    0.0000000000
  Root  96         a            256.857658213 a.u.             6989.4555 eV
     Dipole Oscillator Strength                    0.0000000146
  Root  97         a            256.858139555 a.u.             6989.4686 eV
     Dipole Oscillator Strength                    0.0000000000
  Root  98         a            256.858147715 a.u.             6989.4688 eV
     Dipole Oscillator Strength                    0.0000000132
  Root  99         a            256.867518306 a.u.             6989.7238 eV
     Dipole Oscillator Strength                    0.0000000000
  Root 100         a            256.867868458 a.u.             6989.7333 eV
     Dipole Oscillator Strength                    0.0000000125
 Total times  cpu:      387.6s     wall:      439.2s
